 LAMMPS data file for protein binding
 
         382   atoms
         227   bonds
 
          20   atom types
           1   bond types
 
  -150.000000       150.000000        xlo xhi
  -150.000000       150.000000        ylo yhi
  -150.000000       150.000000        zlo zhi
 
 Masses
 
           1   131.199997    
           2   57.0499992    
           3   128.199997    
           4   101.099998    
           5   156.199997    
           6   71.0800018    
           7   115.099998    
           8   87.0800018    
           9   129.100006    
          10   163.199997    
          11   99.0699997    
          12   113.199997    
          13   128.100006    
          14   186.199997    
          15   147.199997    
          16   137.100006    
          17   114.099998    
          18   97.1200027    
          19   103.099998    
          20   113.199997    
 
 Atoms
 
       1          1          1      0.000     69.213     44.600     16.514
       2          1          2      0.000     67.094     41.709     17.603
       3          1          3      1.000     67.007     38.016     16.977
       4          1          3      1.000     64.447     36.861     14.498
       5          1          4      0.000     62.642     33.616     14.981
       6          1          3      1.000     60.655     31.714     12.436
       7          1          5      1.000     57.931     29.347     13.435
       8          1          4      0.000     56.991     26.568     11.106
       9          1          6      0.000     54.739     23.669     11.834
      10          1          7     -1.000     54.023     20.663      9.715
      11          1          8      0.000     50.898     18.754     10.489
      12          1          8      0.000     48.876     16.339      8.458
      13          1          8      0.000     45.862     14.274      9.271
      14          1          8      0.000     44.533     11.214      7.566
      15          1          9     -1.000     41.858      8.778      8.525
      16          1          7     -1.000     41.801      5.235      7.313
      17          1          9     -1.000     38.447      3.897      8.283
      18          1          9     -1.000     37.049      0.706      6.683
      19          1          9     -1.000     35.307     -1.343      9.398
      20          1         10      0.000     32.085      0.359     10.590
      21          1         11      0.000     29.212     -0.421     12.920
      22          1         11      0.000     26.184     -1.853     11.126
      23          1          9     -1.000     22.652     -0.829     12.041
      24          1          3      1.000     20.482     -3.230      9.996
      25          1         11      0.000     20.747     -5.756      7.182
      26          1         12      0.000     18.119     -4.631      4.677
      27          1          7     -1.000     18.376     -7.014      1.751
      28          1          5      1.000     20.261     -9.915      0.358
      29          1          5      1.000     21.316    -10.985     -3.156
      30          1         11      0.000     23.423    -13.651     -4.863
      31          1         11      0.000     25.619    -12.266     -7.625
      32          1          3      1.000     28.612    -13.833     -9.432
      33          1          2      0.000     28.798    -16.713     -7.007
      34          1         13      0.000     28.689    -14.661     -3.809
      35          1         11      0.000     26.038    -13.712     -1.256
      36          1          9     -1.000     25.867     -9.980     -0.640
      37          1         10      0.000     23.880     -8.003      1.903
      38          1         12      0.000     22.605     -4.511      1.772
      39          1         12      0.000     23.760     -2.742      4.914
      40          1          3      1.000     22.444      0.339      6.670
      41          1         14      0.000     25.448      1.708      8.528
      42          1          3      1.000     24.959      2.996     12.096
      43          1          2      0.000     24.860      6.793     12.313
      44          1         15      0.000     25.028      7.169      8.488
      45          1          8      0.000     22.077      8.251      6.241
      46          1          9     -1.000     20.447      5.656      3.974
      47          1          9     -1.000     22.167      7.270      0.984
      48          1         16      0.000     25.410      5.679      2.357
      49          1         17      0.000     24.020      2.075      2.257
      50          1          4      0.000     26.253     -0.400      0.406
      51          1         14      0.000     26.076     -4.049     -0.698
      52          1          9     -1.000     28.868     -6.091      0.917
      53          1         18      0.000     29.756     -9.671      0.362
      54          1          9     -1.000     29.115    -12.069      3.220
      55          1          3      1.000     32.885    -12.335      3.908
      56          1         17      0.000     32.906     -8.698      4.937
      57          1         12      0.000     30.176     -9.055      7.566
      58          1          7     -1.000     30.753     -9.313     11.337
      59          1         19      0.000     27.145     -8.921     12.309
      60          1         18      0.000     25.632    -12.396     12.600
      61          1          9     -1.000     22.733    -11.287     14.776
      62          1         12      0.000     21.694     -8.645     12.210
      63          1         20      0.000     21.736    -11.264      9.432
      64          1          8      0.000     19.585    -13.416     11.788
      65          1          9     -1.000     17.104    -10.607     12.368
      66          1         15      0.000     16.949    -10.170      8.571
      67          1          1      0.000     16.407    -13.909      7.996
      68          1          3      1.000     13.313    -13.697     10.104
      69          1          3      1.000     12.426    -10.358      8.355
      70          1         10      0.000      8.856     -8.734      8.946
      71          1          3      1.000      5.505     -7.494      7.201
      72          1          3      1.000      1.537     -7.237      7.045
      73          1          1      0.000     -1.764     -5.097      6.438
      74          1          3      1.000     -5.581     -4.995      5.299
      75          1          9     -1.000     -8.946     -2.908      4.420
      76          1          2      0.000    -12.514     -3.225      5.549
      77          1          9     -1.000    -15.964     -3.524      4.129
      78          1         17      0.000    -17.767     -0.243      4.378
      79          1         17      0.000    -20.095      1.331      1.891
      80          1          3      1.000    -21.641      4.730      2.147
      81          1         18      0.000    -24.156      6.194     -0.194
      82          1          5      1.000    -22.812      9.606      0.746
      83          1          9     -1.000    -25.998     11.449     -0.017
      84          1          3      1.000    -25.562     15.163     -0.480
      85          1          8      0.000    -27.920     17.537     -2.169
      86          1          9     -1.000    -28.211     21.266     -2.476
      87          1          8      0.000    -30.996     23.155     -4.128
      88          1         17      0.000    -31.825     26.804     -4.362
      89          1          3      1.000    -34.912     28.261     -5.902
      90          1          5      1.000    -34.816     31.844     -6.990
      91          1          3      1.000    -36.613     33.747     -9.661
      92          1          8      0.000    -34.527     36.139    -11.640
      93          1         17      0.000    -34.226     37.322    -15.169
      94          1         15      0.000    -31.956     35.009    -17.052
      95          1          8      0.000    -30.870     31.732    -15.589
      96          1         17      0.000    -28.926     31.592    -12.386
      97          1          8      0.000    -25.365     32.771    -12.432
      98          1          6      0.000    -23.903     29.320    -12.375
      99          1          7     -1.000    -25.173     26.442    -14.419
     100          1          7     -1.000    -24.062     23.324    -12.661
     101          1         20      0.000    -24.949     20.367    -14.771
     102          1          3      1.000    -22.840     17.282    -14.922
     103          1          8      0.000    -23.034     15.916    -18.387
     104          1          3      1.000    -21.770     12.553    -19.399
     105          1          3      1.000    -22.070     11.152    -22.863
     106          1          3      1.000    -23.043      7.550    -23.125
     107          1          5      1.000    -21.419      5.579    -25.861
     108          1          9     -1.000    -18.955      2.786    -26.135
     109          1         13      0.000    -15.646      3.968    -24.821
     110          1          8      0.000    -12.815      2.983    -22.548
     111          1         17      0.000    -13.286      1.410    -19.163
     112          1          7     -1.000    -13.013      4.766    -17.419
     113          1         20      0.000    -15.368      3.492    -14.640
     114          1          6      0.000    -12.260      2.173    -12.913
     115          1          5      1.000     -9.607      4.826    -12.387
     116          1          2      0.000     -9.517      4.478     -8.462
     117          1         15      0.000     -5.671      4.711     -8.423
     118          1          9     -1.000     -5.729      8.221     -9.856
     119          1          5      1.000     -6.981      9.434     -6.586
     120          1          2      0.000     -3.407      8.907     -5.305
     121          1         12      0.000     -4.484      7.072     -2.122
     122          1          9     -1.000     -2.856      3.909     -0.839
     123          1         18      0.000     -4.708      0.679     -1.371
     124          1          9     -1.000     -5.731     -1.259      1.684
     125          1          3      1.000     -8.005     -4.151      0.766
     126          1         20      0.000    -10.064     -5.499     -2.094
     127          1         20      0.000    -13.690     -5.761     -1.079
     128          1          2      0.000    -15.297     -6.987     -4.336
     129          1          6      0.000    -15.010     -7.651     -8.037
     130          1          4      0.000    -16.937     -7.655    -11.280
     131          1          7     -1.000    -16.832     -7.800    -15.097
     132          1          8      0.000    -17.291     -4.240    -16.301
     133          1         19      0.000    -16.058     -3.399    -19.744
     134          1          2      0.000    -15.711     -7.162    -19.981
     135          1          7     -1.000    -12.434     -6.715    -18.066
     136          1         12      0.000    -12.004     -7.908    -14.487
     137          1          1      0.000    -12.227     -5.085    -11.926
     138          1         15      0.000    -11.600     -4.810     -8.158
     139          1         12      0.000    -13.445     -2.659     -5.756
     140          1          1      0.000    -10.478     -1.263     -3.851
     141          1          3      1.000    -10.731      0.151     -0.393
     142          1         14      0.000     -8.186      2.856      0.499
     143          1          3      1.000     -6.080      3.055      3.669
     144          1          7     -1.000     -7.630      4.770      6.744
     145          1          4      0.000    -10.658      6.105      4.815
     146          1          7     -1.000    -14.086      4.675      4.353
     147          1          9     -1.000    -14.025      4.949      0.565
     148          1          6      0.000    -13.694      2.400     -2.239
     149          1          7     -1.000    -13.331      2.667     -6.076
     150          1         12      0.000    -12.928      0.361     -9.021
     151          1         11      0.000     -9.536     -0.270    -10.424
     152          1         12      0.000     -8.555     -2.675    -13.178
     153          1          6      0.000     -7.238     -6.011    -11.863
     154          1          3      1.000     -4.455     -5.986    -14.572
     155          1          9     -1.000     -3.261     -2.734    -13.063
     156          1          6      0.000     -3.678     -3.766     -9.351
     157          1         17      0.000     -1.608     -6.900    -10.022
     158          1         11      0.000      1.317     -4.694    -10.778
     159          1          3      1.000      0.757     -1.865     -8.282
     160          1         19      0.000     -0.247     -3.891     -5.160
     161          1         18      0.000      0.278     -7.615     -5.844
     162          1         13      0.000      0.222     -8.736     -2.138
     163          1         20      0.000     -3.211     -7.207     -1.670
     164          1         11      0.000     -4.440     -8.814     -4.901
     165          1         20      0.000     -3.189    -12.116     -3.484
     166          1          6      0.000     -4.914    -11.717     -0.061
     167          1         15      0.000     -8.179    -11.334     -2.022
     168          1         10      0.000     -7.669    -14.652     -3.743
     169          1          9     -1.000     -6.844    -16.624     -0.582
     170          1          9     -1.000    -10.483    -15.831      0.281
     171          1          5      1.000    -12.211    -17.525     -2.611
     172          1         12      0.000    -13.988    -20.464     -1.101
     173          1          4      0.000    -16.887    -22.557     -2.193
     174          1         14      0.000    -19.683    -22.133      0.268
     175          1         16      0.000    -23.375    -22.639     -0.111
     176          1          6      0.000    -26.136    -21.693      2.236
     177          1         10      0.000    -29.517    -23.307      2.292
     178          1         18      0.000    -32.263    -21.613      4.118
     179          1          9     -1.000    -34.536    -23.786      6.166
     180          1          7     -1.000    -38.215    -23.086      6.171
     181          1          6      0.000    -39.899    -25.185      8.774
     182          1          9     -1.000    -42.860    -24.469     10.957
     183          1         17      0.000    -43.666    -26.313     14.113
     184          1          3      1.000    -47.105    -26.359     15.596
     185          1          9     -1.000    -47.860    -27.533     19.073
     186          1          3      1.000    -51.238    -28.482     20.375
     187          1          9     -1.000    -52.105    -27.785     23.952
     188          1          4      0.000    -54.666    -29.648     25.955
     189          1          6      0.000    -56.582    -28.576     28.992
     190          1          3      1.000    -57.192    -30.738     31.990
     191          1          8      0.000    -60.730    -31.991     32.030
     192          2          1      0.000     69.963     74.001     15.758
     193          2          2      0.000     67.191     71.663     16.696
     194          2          3      1.000     66.671     67.953     16.669
     195          2          3      1.000     64.466     66.655     13.933
     196          2          4      0.000     62.224     63.721     14.545
     197          2          3      1.000     60.672     61.522     11.938
     198          2          5      1.000     57.667     59.427     12.698
     199          2          4      0.000     56.857     56.412     10.624
     200          2          6      0.000     54.387     53.691     11.336
     201          2          7     -1.000     54.259     50.319      9.709
     202          2          8      0.000     51.035     48.618     10.553
     203          2          8      0.000     48.850     46.379      8.491
     204          2          8      0.000     45.830     44.343      9.346
     205          2          8      0.000     44.401     41.371      7.567
     206          2          9     -1.000     41.769     38.896      8.536
     207          2          7     -1.000     41.723     35.383      7.236
     208          2          9     -1.000     38.455     33.894      8.281
     209          2          9     -1.000     37.049     30.706      6.683
     210          2          9     -1.000     35.307     28.657      9.398
     211          2         10      0.000     32.085     30.359     10.590
     212          2         11      0.000     29.212     29.579     12.920
     213          2         11      0.000     26.184     28.147     11.126
     214          2          9     -1.000     22.652     29.171     12.041
     215          2          3      1.000     20.482     26.770      9.996
     216          2         11      0.000     20.747     24.244      7.182
     217          2         12      0.000     18.119     25.369      4.677
     218          2          7     -1.000     18.376     22.986      1.751
     219          2          5      1.000     20.261     20.085      0.358
     220          2          5      1.000     21.316     19.015     -3.156
     221          2         11      0.000     23.423     16.349     -4.863
     222          2         11      0.000     25.619     17.734     -7.625
     223          2          3      1.000     28.612     16.167     -9.432
     224          2          2      0.000     28.798     13.287     -7.007
     225          2         13      0.000     28.689     15.339     -3.809
     226          2         11      0.000     26.038     16.288     -1.256
     227          2          9     -1.000     25.867     20.020     -0.640
     228          2         10      0.000     23.880     21.997      1.903
     229          2         12      0.000     22.605     25.489      1.772
     230          2         12      0.000     23.760     27.258      4.914
     231          2          3      1.000     22.444     30.339      6.670
     232          2         14      0.000     25.448     31.708      8.528
     233          2          3      1.000     24.959     32.996     12.096
     234          2          2      0.000     24.860     36.793     12.313
     235          2         15      0.000     25.028     37.169      8.488
     236          2          8      0.000     22.077     38.251      6.241
     237          2          9     -1.000     20.447     35.656      3.974
     238          2          9     -1.000     22.167     37.270      0.984
     239          2         16      0.000     25.410     35.679      2.357
     240          2         17      0.000     24.020     32.075      2.257
     241          2          4      0.000     26.253     29.600      0.406
     242          2         14      0.000     26.076     25.951     -0.698
     243          2          9     -1.000     28.868     23.909      0.917
     244          2         18      0.000     29.756     20.329      0.362
     245          2          9     -1.000     29.115     17.931      3.220
     246          2          3      1.000     32.885     17.665      3.908
     247          2         17      0.000     32.906     21.302      4.937
     248          2         12      0.000     30.176     20.945      7.566
     249          2          7     -1.000     30.753     20.687     11.337
     250          2         19      0.000     27.145     21.079     12.309
     251          2         18      0.000     25.632     17.604     12.600
     252          2          9     -1.000     22.733     18.713     14.776
     253          2         12      0.000     21.694     21.355     12.210
     254          2         20      0.000     21.736     18.736      9.432
     255          2          8      0.000     19.585     16.584     11.788
     256          2          9     -1.000     17.104     19.393     12.368
     257          2         15      0.000     16.949     19.830      8.571
     258          2          1      0.000     16.407     16.091      7.996
     259          2          3      1.000     13.313     16.303     10.104
     260          2          3      1.000     12.828     19.644      8.481
     261          2         10      0.000     10.292     19.286      5.719
     262          2          3      1.000      7.826     21.589      4.022
     263          2          3      1.000      4.877     22.550      6.153
     264          2          1      0.000      1.623     24.382      5.667
     265          2          3      1.000     -0.762     25.978      8.106
     266          2          9     -1.000     -3.770     23.948      9.056
     267          2          2      0.000     -6.552     24.321     11.553
     268          2          9     -1.000    -10.189     23.500     11.905
     269          2         17      0.000    -12.995     24.979     13.921
     270          2         17      0.000    -16.714     24.970     13.549
     271          2          3      1.000    -17.309     27.658     11.028
     272          2         18      0.000    -19.771     29.082      8.665
     273          2          5      1.000    -17.839     27.162      6.074
     274          2          9     -1.000    -17.121     30.246      4.068
     275          2          3      1.000    -17.499     29.380      0.446
     276          2          8      0.000    -14.204     28.245     -0.919
     277          2          9     -1.000    -12.948     25.339     -2.900
     278          2          8      0.000    -10.876     22.968     -0.921
     279          2         17      0.000     -7.547     23.953     -2.317
     280          2          3      1.000     -5.977     21.604      0.134
     281          2          5      1.000     -7.893     18.447      0.718
     282          2          3      1.000     -7.423     17.238      4.220
     283          2          8      0.000     -5.749     13.942      3.716
     284          2         17      0.000     -2.432     13.749      5.410
     285          2         15      0.000     -0.743     11.260      7.651
     286          2          8      0.000      2.588     11.704      9.312
     287          2         17      0.000      4.864     10.273      6.762
     288          2          8      0.000      8.016      8.232      7.038
     289          2          6      0.000      9.031      5.435      4.777
     290          2          7     -1.000      9.453      2.647      7.230
     291          2          7     -1.000      9.997      0.159      4.498
     292          2         20      0.000     12.036      0.964      1.464
     293          2          3      1.000     11.511     -1.496     -1.403
     294          2          8      0.000      8.922     -4.196     -1.886
     295          2          3      1.000      8.437     -6.699      0.860
     296          2          3      1.000     10.242     -9.961      1.390
     297          2          3      1.000      9.461    -12.205      4.303
     298          2          5      1.000      9.178    -15.691      5.770
     299          2          9     -1.000      7.718    -17.670      8.634
     300          2         13      0.000      7.574    -21.338      9.571
     301          2          8      0.000      8.000    -23.534      6.591
     302          2         17      0.000      6.991    -26.989      5.485
     303          2          7     -1.000      9.788    -29.598      5.137
     304          2         20      0.000      7.957    -31.518      2.335
     305          2          6      0.000      7.996    -28.119      0.545
     306          2          5      1.000     11.452    -26.549      0.224
     307          2          2      0.000     11.438    -26.465     -3.659
     308          2         15      0.000     12.958    -22.923     -3.743
     309          2          9     -1.000     16.114    -24.241     -2.053
     310          2          5      1.000     16.983    -25.965     -5.268
     311          2          2      0.000     17.900    -22.461     -6.563
     312          2         12      0.000     15.948    -22.738     -9.798
     313          2          9     -1.000     13.724    -20.118    -11.363
     314          2         18      0.000      9.982    -20.644    -10.982
     315          2          9     -1.000      7.919    -20.946    -14.144
     316          2          3      1.000      4.372    -21.987    -13.420
     317          2         20      0.000      2.266    -23.422    -10.578
     318          2         20      0.000      0.767    -26.727    -11.727
     319          2          2      0.000     -1.189    -27.753     -8.593
     320          2          6      0.000     -1.853    -27.204     -4.903
     321          2          4      0.000     -2.739    -28.945     -1.687
     322          2          7     -1.000     -3.109    -28.723      2.121
     323          2          8      0.000     -0.173    -30.109      4.117
     324          2         19      0.000     -0.479    -30.807      7.823
     325          2          2      0.000     -1.270    -26.995      8.296
     326          2          7     -1.000     -0.649    -25.032      5.174
     327          2         12      0.000     -1.381    -24.234      1.521
     328          2          1      0.000      1.327    -25.458     -0.878
     329          2         15      0.000      2.016    -25.005     -4.596
     330          2         12      0.000      3.447    -27.542     -6.885
     331          2          1      0.000      5.866    -25.286     -8.686
     332          2          3      1.000      7.343    -26.155    -12.050
     333          2         14      0.000     10.828    -24.726    -12.734
     334          2          3      1.000     11.967    -22.897    -15.917
     335          2          7     -1.000     13.210    -25.014    -18.843
     336          2          4      0.000     13.452    -28.235    -16.769
     337          2          7     -1.000     10.776    -30.914    -16.558
     338          2          9     -1.000     10.752    -30.879    -12.759
     339          2          6      0.000      8.356    -29.606    -10.098
     340          2          7     -1.000      8.448    -29.397     -6.237
     341          2         12      0.000      6.266    -28.174     -3.376
     342          2         11      0.000      6.830    -24.686     -2.004
     343          2         12      0.000      4.763    -22.912      0.613
     344          2          6      0.000      2.273    -20.446     -0.887
     345          2          3      1.000      3.150    -17.890      1.846
     346          2          9     -1.000      6.712    -17.991      0.531
     347          2          6      0.000      5.794    -18.059     -3.208
     348          2         17      0.000      3.591    -14.966     -2.712
     349          2         11      0.000      6.661    -13.014     -1.790
     350          2          3      1.000      9.163    -14.676     -4.190
     351          2         19      0.000      7.117    -14.806     -7.412
     352          2         18      0.000      3.871    -12.923     -6.946
     353          2         13      0.000      2.974    -12.609    -10.640
     354          2         20      0.000      3.209    -16.374    -10.990
     355          2         11      0.000      0.871    -16.887     -7.968
     356          2         20      0.000     -1.596    -14.375     -9.377
     357          2          6      0.000     -1.604    -16.053    -12.867
     358          2         15      0.000     -2.466    -19.285    -11.132
     359          2         10      0.000     -5.458    -17.863     -9.257
     360          2          9     -1.000     -6.523    -16.160    -12.508
     361          2          9     -1.000     -7.049    -19.579    -14.008
     362          2          5      1.000    -10.348    -20.529    -12.430
     363          2         12      0.000    -13.864    -20.391    -13.695
     364          2          4      0.000    -16.458    -19.127    -11.303
     365          2         14      0.000    -19.479    -17.038    -12.008
     366          2         16      0.000    -21.431    -15.300     -9.326
     367          2          6      0.000    -23.830    -12.461     -9.772
     368          2         10      0.000    -26.952    -11.266     -8.084
     369          2         18      0.000    -29.518     -9.384     -9.989
     370          2          9     -1.000    -30.905     -7.986     -6.776
     371          2          7     -1.000    -34.633     -7.787     -6.492
     372          2          6      0.000    -35.523     -4.219     -5.785
     373          2          9     -1.000    -38.124     -1.875     -7.124
     374          2         17      0.000    -37.944      1.862     -7.009
     375          2          3      1.000    -41.091      3.857     -6.596
     376          2          9     -1.000    -41.127      7.594     -6.893
     377          2          3      1.000    -43.970     10.024     -6.649
     378          2          9     -1.000    -44.040     13.412     -8.248
     379          2          4      0.000    -45.721     16.378     -6.693
     380          2          6      0.000    -46.662     19.615     -8.327
     381          2          3      1.000    -46.628     22.989     -6.698
     382          2          8      0.000    -49.986     24.636     -6.366
 
 Bonds
 
       1       1       1       2
       2       1       2       3
       3       1       3       4
       4       1       4       5
       5       1       5       6
       6       1       6       7
       7       1       7       8
       8       1       8       9
       9       1       9      10
      10       1      10      11
      11       1      11      12
      12       1      12      13
      13       1      13      14